LAMMPS data file  511 ACN + 14 LiPF6

3178 atoms
7 atom types
2639 bonds
4 bond types
3787 angles
5 angle types

0 36 xlo xhi
0 36 ylo yhi
0 36 zlo zhi

Masses

1 12.011
2 12.011
3 14.0067
4 1.008
5 6.941
6 30.97
7 19

Pair Coeffs # lj/cut/coul/long

1 0.066 3.3
2 0.066 3.3
3 0.17 3.2
4 0.015 2.5
5 0.01828 2.12645
6 0.2 3.74
7 0.060994 3.1181

Bond Coeffs # harmonic

1 390 1.47 
2 650 1.157 
3 340 1.09
4 740.918 1.606

Angle Coeffs # harmonic

1 150 180 
2 35 108.5 
3 33 107.8 
4 139.22 90
5 139.22 180

Atoms # full

1 1 1 -0.08 17.914741221371308 10.82376765108372 24.455946481914978 7 -1 3
2 1 2 0.46 18.185577541615555 11.811474661114227 25.472775324258983 7 -1 3
3 1 3 -0.56 18.43569958314288 12.592318013303622 26.26755112505187 7 -1 3
4 1 4 0.06 18.239647474621552 9.831698654295353 24.80044802524811 7 -1 3
5 1 4 0.06 16.808724041279827 10.784868286724786 24.207128916147028 7 -1 3
6 1 4 0.06 18.529286566776758 11.080482355554755 23.569576755224727 7 -1 3
7 2 1 -0.08 29.039615486934775 11.952824295076375 14.758366550450702 2 -3 2
8 2 2 0.46 28.797720018729827 10.780945829070557 13.911023602297236 2 -3 2
9 2 3 -0.56 28.608128473908444 9.905534319531625 13.181311558444294 2 -3 2
10 2 4 0.06 28.815048694174134 12.699997639434141 14.051736395459992 2 -3 2
11 2 4 0.06 28.25779371175876 11.965283138846992 15.519713125357892 2 -3 2
12 2 4 0.06 30.02233947216742 12.094509103229106 15.166213403037 2 -3 2
13 3 1 -0.08 5.337066673426306 33.37112179936603 7.02594865924382 5 -4 4
14 3 2 0.46 4.849616071146109 32.206644236097155 6.254153756681968 5 -4 4
15 3 3 -0.56 4.468406123574651 31.293340950320662 5.669078760470247 5 -4 4
16 3 4 0.06 4.621227950004896 33.499321956543554 7.785087880274961 5 -4 4
17 3 4 0.06 6.3160756614962565 33.08769549351908 7.333933446113121 5 -4 4
18 3 4 0.06 5.429618227494395 34.19892483850183 6.3526927312525165 5 -4 4
19 4 1 -0.08 22.90347693854541 34.461312092509324 12.431742444745602 0 -7 4
20 4 2 0.46 21.464725409977078 34.130816527860645 12.460607511966778 0 -7 4
21 4 3 -0.56 20.327311685866334 33.860843979483306 12.489116823850866 0 -7 4
22 4 4 0.06 23.02933250389662 35.471484169444466 12.899241781255974 0 -7 4
23 4 4 0.06 23.460128041756793 33.69534510408238 12.994866523351297 0 -7 4
24 4 4 0.06 23.363010693276063 34.55455869562655 11.440107907433848 0 -7 4
25 5 1 -0.08 27.993455529964496 32.308271614802855 8.482246476620533 6 0 -2
26 5 2 0.46 28.15380466667993 33.75131910283583 8.7443615488682 6 0 -2
27 5 3 -0.56 28.332117995153503 34.83144866538536 9.017555929064255 6 0 -2
28 5 4 0.06 27.669601768136133 31.821643199850673 9.41302586356549 6 0 -2
29 5 4 0.06 27.231635303097402 32.170222450815594 7.716103927246978 6 0 -2
30 5 4 0.06 28.913008118319965 31.88772671994874 8.171339508492148 6 0 -2
31 6 1 -0.08 23.473622014722803 30.388501475850532 22.46718296430826 -2 -8 -3
32 6 2 0.46 22.137915782572666 30.844800340116024 22.09052571552478 -2 -8 -3
33 6 3 -0.56 21.097422634842747 31.207540013453787 21.782324686333386 -2 -8 -3
34 6 4 0.06 23.76059716131599 29.574510967600613 21.809016062492972 -2 -8 -3
35 6 4 0.06 24.298807754962993 31.056941033885437 22.26807637813928 -2 -8 -3
36 6 4 0.06 23.5993853686365 30.109642802776186 23.470193908532703 -2 -8 -3
37 7 1 -0.08 13.43250394080399 10.520744199132633 21.446816933686073 -3 -4 1
38 7 2 0.46 13.560074250430281 9.18056823948125 21.85271838817012 -3 -4 1
39 7 3 -0.56 13.658639196359962 8.081525502593767 22.12047145698584 -3 -4 1
40 7 4 0.06 14.127088415064081 11.277525525252472 21.806239805519358 -3 -4 1
41 7 4 0.06 13.562495902682777 10.441183789346075 20.385978198909502 -3 -4 1
42 7 4 0.06 12.480764694236266 10.846120173877578 21.644690246231395 -3 -4 1
43 8 1 -0.08 26.783583010683937 31.233518411118023 27.01098182902399 -3 -3 -5
44 8 2 0.46 26.045928619597856 31.95765764814725 25.969488807307698 -3 -3 -5
45 8 3 -0.56 25.39978028047577 32.4471685512743 25.138306713133076 -3 -3 -5
46 8 4 0.06 27.413968436255672 30.542269193703433 26.541785396815964 -3 -3 -5
47 8 4 0.06 27.400567342277043 31.97232372251235 27.599150832196965 -3 -3 -5
48 8 4 0.06 26.163493286741986 30.75091290044649 27.689781488289416 -3 -3 -5
49 9 1 -0.08 1.9251325214645194 26.221907742807307 11.54734427063059 4 -1 -3
50 9 2 0.46 1.0477054218813808 25.078770573838128 11.679274648876588 4 -1 -3
51 9 3 -0.56 0.2914255691157802 24.138850837350677 11.901177466644066 4 -1 -3
52 9 4 0.06 2.6446999358919707 26.400026756930018 12.319583486896343 4 -1 -3
53 9 4 0.06 2.461886482412825 26.034055919300513 10.604962583603557 4 -1 -3
54 9 4 0.06 1.3137315489331594 27.09963565527536 11.452047697823936 4 -1 -3
55 10 1 -0.08 26.21691246408327 30.735461438898344 2.3411747207275635 0 -3 6
56 10 2 0.46 26.714051795377323 31.58047120402692 3.433999336722129 0 -3 6
57 10 3 -0.56 27.094508304933164 32.257715445022335 4.283832847607977 0 -3 6
58 10 4 0.06 27.056636228754712 30.09919633289645 1.9984314431389458 0 -3 6
59 10 4 0.06 25.314696158392103 30.091410816788898 2.576041221875916 0 -3 6
60 10 4 0.06 25.93282066924828 31.367068344492328 1.4606016877235337 0 -3 6
61 11 1 -0.08 4.43271026502774 13.60201912134289 15.985304323116976 1 2 3
62 11 2 0.46 5.810515786338531 13.69999348162047 16.09277074556255 1 2 3
63 11 3 -0.56 6.982636593487953 13.723259040199615 16.202837508996915 1 2 3
64 11 4 0.06 4.076020106192283 12.602528803996861 15.669092408428325 1 2 3
65 11 4 0.06 4.062718280899912 13.696316093725207 16.98988543689921 1 2 3
66 11 4 0.06 3.9090648763596016 14.27636344589471 15.365318482540836 1 2 3
67 12 1 -0.08 4.52762771555867 24.11945428211623 33.36457215147562 -2 -2 6
68 12 2 0.46 4.010071167436508 24.4587169970134 34.70273202424813 -2 -2 6
69 12 3 -0.56 3.5399285369863396 24.677409466398426 35.7463965960741 -2 -2 6
70 12 4 0.06 5.6347624923279085 24.13516886884907 33.31843870475525 -2 -2 6
71 12 4 0.06 4.130540984157299 23.185698303766998 33.075650686765925 -2 -2 6
72 12 4 0.06 4.155613457584814 24.986495735487324 32.73688291427528 -2 -2 6
73 13 1 -0.08 12.378541400391528 18.827904595459366 0.6880516334760126 1 -6 3
74 13 2 0.46 12.528307497868909 18.691585880742682 2.0932844578032266 1 -6 3
75 13 3 -0.56 12.655762287642723 18.614513528577906 3.2664923122369993 1 -6 3
76 13 4 0.06 13.202657132074636 19.364063302676634 0.27765437430344664 1 -6 3
77 13 4 0.06 12.195155290703108 17.77078431801706 0.33201975664220706 1 -6 3
78 13 4 0.06 11.539685938787411 19.52547617798079 0.5959635192225832 1 -6 3
79 14 1 -0.08 35.42443542028833 20.695748062332136 29.468837720617977 -3 -1 1
80 14 2 0.46 34.41415179563585 20.029832138017227 28.646993377486123 -3 -1 1
81 14 3 -0.56 33.72941391836626 19.466854241919958 27.92830801795719 -3 -1 1
82 14 4 0.06 0.37754283658566556 20.331000933383923 29.07366657623585 -2 -1 1
83 14 4 0.06 35.44738841166596 21.798191247656703 29.48326340271677 -3 -1 1
84 14 4 0.06 35.277727066988305 20.280821723310165 30.479403411572207 -3 -1 1
85 15 1 -0.08 27.15752047332677 22.031060218761628 35.49014032921123 0 -6 -6
86 15 2 0.46 27.635823241896034 21.92469088261327 0.8866583190428894 0 -6 -5
87 15 3 -0.56 27.998806120252233 21.790937223936368 1.9834485434663511 0 -6 -5
88 15 4 0.06 26.93709396247638 22.96239012785774 35.0855025657068 0 -6 -6
89 15 4 0.06 27.924159793859204 21.60293165334392 34.900373628548834 0 -6 -6
90 15 4 0.06 26.282784698456886 21.41495044861926 35.58048122653743 0 -6 -6
91 16 1 -0.08 31.54073855458132 13.953825502619837 21.50404132467071 5 -1 3
92 16 2 0.46 31.86336830841124 12.65018618693161 21.990641387123883 5 -1 3
93 16 3 -0.56 32.09823735192767 11.623122932749771 22.35476986071903 5 -1 3
94 16 4 0.06 31.807939087661886 14.047215447915903 20.450606872796822 5 -1 3
95 16 4 0.06 30.461421105121943 13.82912587819179 21.574062164239898 5 -1 3
96 16 4 0.06 31.887028541229157 14.71079220746337 22.178319850518054 5 -1 3
97 17 1 -0.08 14.978865553679036 18.22770241677343 5.800558987909809 1 -2 2
98 17 2 0.46 15.610247221324858 19.257759429994632 4.952524974849154 1 -2 2
99 17 3 -0.56 16.14898806379051 20.045135872506613 4.327784823069265 1 -2 2
100 17 4 0.06 15.870703410930341 17.849870308641133 6.320132338774002 1 -2 2
101 17 4 0.06 14.32314612694706 18.664951889821182 6.507808928075268 1 -2 2
102 17 4 0.06 14.409752916043233 17.482257648833606 5.180831953432219 1 -2 2
103 18 1 -0.08 9.353252126397066 3.787402512554349 3.0054088112005646 6 -5 -1
104 18 2 0.46 9.531723982744342 5.019018621382317 2.2691830732083935 6 -5 -1
105 18 3 -0.56 9.725628594538618 5.9888383973263455 1.654932946316915 6 -5 -1
106 18 4 0.06 9.371115114491438 3.9737698987428423 4.115010209947114 6 -5 -1
107 18 4 0.06 8.379105052733241 3.454166233269719 2.8141488300939392 6 -5 -1
108 18 4 0.06 10.183859081174397 3.144968851544647 2.7663024241622414 6 -5 -1
109 19 1 -0.08 17.955145083060557 11.620561369694451 13.10463436746795 0 -2 2
110 19 2 0.46 16.611167195798366 11.429386031461215 13.676014391358182 0 -2 2
111 19 3 -0.56 15.538361186699635 11.289210659573587 14.080857174298323 0 -2 2
112 19 4 0.06 18.599485696875018 10.837670087053828 13.53430764312426 0 -2 2
113 19 4 0.06 17.97345423366167 11.60400331166588 11.981337722117244 0 -2 2
114 19 4 0.06 18.397033856371927 12.587574123429365 13.436073597429951 0 -2 2
115 20 1 -0.08 30.693113767629725 1.7908989055909839 2.0520027863079315 3 -3 -1
116 20 2 0.46 30.46800797968008 2.2527849667383304 3.4667722562421437 3 -3 -1
117 20 3 -0.56 30.30596135906244 2.582150977176357 4.53961019181826 3 -3 -1
118 20 4 0.06 30.32140339607655 2.4793597215450154 1.2384943836049136 3 -3 -1
119 20 4 0.06 31.713750113612793 1.5723769386366575 1.7850385869454406 3 -3 -1
120 20 4 0.06 30.155975385567835 0.8879774946447975 2.1065232046167695 3 -3 -1
121 21 1 -0.08 3.7814788567881212 35.62935969846108 10.101814006196257 8 0 2
122 21 2 0.46 4.621484935439147 34.54207542013211 10.517697172378412 8 0 2
123 21 3 -0.56 5.312784222829972 33.67343855398246 10.887235227665832 8 0 2
124 21 4 0.06 4.2631192848359305 0.6089631420436592 10.294406987291676 8 1 2
125 21 4 0.06 3.7500916717734247 35.533137389948045 9.03664958872915 8 0 2
126 21 4 0.06 2.8491434137470217 35.70858561476541 10.637068929492857 8 0 2
127 22 1 -0.08 29.679026993400875 0.6852813077332861 24.734159498376272 3 -2 2
128 22 2 0.46 30.549734340728065 0.7838963644912267 25.823131488622614 3 -2 2
129 22 3 -0.56 31.273089163013946 0.8915223470284093 26.74874033066544 3 -2 2
130 22 4 0.06 29.19301819449924 35.76370689040715 24.853777965694714 3 -3 2
131 22 4 0.06 28.93707415922613 1.4625234263725957 24.84656341124144 3 -2 2
132 22 4 0.06 30.145954564905654 0.7562480670167736 23.751289636767797 3 -2 2
133 23 1 -0.08 6.165008593789931 5.105303027712382 7.423840921647536 -2 1 3
134 23 2 0.46 5.207020788549156 4.691100212875677 8.363933260746071 -2 1 3
135 23 3 -0.56 4.4751526174191305 4.354819311030163 9.202483357494724 -2 1 3
136 23 4 0.06 7.12006917670682 5.5067266955708885 7.883185713564389 -2 1 3
137 23 4 0.06 6.3111436014522955 4.35395768032749 6.712505939983533 -2 1 3
138 23 4 0.06 5.782707674461278 6.023691965713216 6.854925515329168 -2 1 3
139 24 1 -0.08 31.58047608294598 18.24382771559627 9.021562530329106 -2 -1 2
140 24 2 0.46 32.43867027207206 16.972537827977593 8.796271324428782 -2 -1 2
141 24 3 -0.56 33.07379583255657 16.036628825867286 8.627733761375703 -2 -1 2
142 24 4 0.06 31.805237589250257 18.67649810650409 10.02617429984177 -2 -1 2
143 24 4 0.06 31.80177064258538 19.05747137455668 8.260378396151522 -2 -1 2
144 24 4 0.06 30.518132177633117 17.96480239760037 8.910552079918459 -2 -1 2
145 25 1 -0.08 35.57651878063372 8.951899582296681 31.791849339804305 -1 -7 -2
146 25 2 0.46 34.13450770934024 8.966060875922729 31.950507592579704 -1 -7 -2
147 25 3 -0.56 32.98221746928862 8.949928793338348 32.03672632748496 -1 -7 -2
148 25 4 0.06 35.90274351985057 9.668044510075793 31.068191784806938 -1 -7 -2
149 25 4 0.06 0.08041608653842844 9.160690372863279 32.68603184588483 0 -7 -2
150 25 4 0.06 35.848129805353565 7.923174892522916 31.492093631824716 -1 -7 -2
151 26 1 -0.08 20.82833453960655 9.045843638034977 15.548999254788855 2 -3 0
152 26 2 0.46 19.37124959898658 9.053242591720153 15.515100008784588 2 -3 0
153 26 3 -0.56 18.213824589450702 9.031386456305501 15.522105800752726 2 -3 0
154 26 4 0.06 21.123959887624142 9.146107779839406 14.48742723362983 2 -3 0
155 26 4 0.06 21.073597466370284 10.03812223346815 16.013132437700147 2 -3 0
156 26 4 0.06 21.23481979564447 8.198740053443693 16.081646801162023 2 -3 0
157 27 1 -0.08 17.20763870927901 15.396247380237856 30.256596353426797 4 -6 0
158 27 2 0.46 17.86640086896311 14.761301780275158 31.407170935574328 4 -6 0
159 27 3 -0.56 18.27481682252625 14.315442570473278 32.390021518406535 4 -6 0
160 27 4 0.06 16.695648688780672 16.222027883797843 30.7118441666865 4 -6 0
161 27 4 0.06 17.88498593307222 15.84552481912467 29.53659994030848 4 -6 0
162 27 4 0.06 16.54353546334249 14.685535632589445 29.802288372349675 4 -6 0
163 28 1 -0.08 32.447624235324724 3.477062441638196 10.646907895717764 0 -2 2
164 28 2 0.46 33.33822860111124 4.318302291230906 11.393017846882241 0 -2 2
165 28 3 -0.56 34.013564640171175 4.984102593893637 11.99754296757743 0 -2 2
166 28 4 0.06 33.046950565246014 2.931380171159403 9.88256291365696 0 -2 2
167 28 4 0.06 31.85927356557749 2.7945447064613735 11.251658570163231 0 -2 2
168 28 4 0.06 31.80608612107533 4.091783066087702 10.065434166244653 0 -2 2
169 29 1 -0.08 29.745792996482404 29.558066259625626 9.704889982085561 0 5 9
170 29 2 0.46 30.28987410614637 28.3638935361977 10.319517285048617 0 5 9
171 29 3 -0.56 30.668213993326674 27.396233307431142 10.78782166624526 0 5 9
172 29 4 0.06 28.632845894245005 29.329234086616268 9.47019209140271 0 5 9
173 29 4 0.06 29.90212840189247 30.49618961858674 10.306716400054167 0 5 9
174 29 4 0.06 30.23071528445956 29.662009817161593 8.712910310043597 0 5 9
175 30 1 -0.08 20.130475776605795 14.321147953635109 20.740895885692886 -2 -7 -1
176 30 2 0.46 20.507279026278656 12.937459411274176 21.12706318361468 -2 -7 -1
177 30 3 -0.56 20.89975599008609 11.857575462046043 21.396250984494184 -2 -7 -1
178 30 4 0.06 19.58685988195127 14.30466210642959 19.80184710362311 -2 -7 -1
179 30 4 0.06 19.6188480043683 14.711751210050492 21.583184386141127 -2 -7 -1
180 30 4 0.06 21.13323345761865 14.851626342205714 20.61605070324939 -2 -7 -1
181 31 1 -0.08 20.5066389983666 12.701592963517774 15.809038941898331 -2 -4 -5
182 31 2 0.46 19.84370804797357 13.952644617487257 15.287280037971215 -2 -4 -5
183 31 3 -0.56 19.34258913495037 14.943895107749354 14.977146037135393 -2 -4 -5
184 31 4 0.06 21.578097307203326 12.896964936548718 15.954105414525346 -2 -4 -5
185 31 4 0.06 19.975969997476785 12.594362243699175 16.752860870044955 -2 -4 -5
186 31 4 0.06 20.369305271293435 11.837373868687227 15.111691913266748 -2 -4 -5
187 32 1 -0.08 17.36369617388304 17.34503733118202 21.215203169288152 3 -3 3
188 32 2 0.46 18.380543025513926 17.136925042409963 22.232714827665742 3 -3 3
189 32 3 -0.56 19.18040105017969 17.024876837810286 23.033353236032095 3 -3 3
190 32 4 0.06 16.50805220745622 16.82002118284633 21.453521668748778 3 -3 3
191 32 4 0.06 17.169726366296295 18.409638282117935 21.142083227152863 3 -3 3
192 32 4 0.06 17.70405945307962 17.078216436630353 20.16859663660867 3 -3 3
193 33 1 -0.08 2.6228649338157806 22.14011839535518 26.091338659582814 1 -1 -2
194 33 2 0.46 1.3275269628182842 22.522246672883814 26.683199887236896 1 -1 -2
195 33 3 -0.56 0.3169633053945569 22.795549429759387 27.119228836397024 1 -1 -2
196 33 4 0.06 2.802881701823046 22.739753720169258 25.2014682980083 1 -1 -2
197 33 4 0.06 3.4556272278318967 22.233836900058247 26.87133157719061 1 -1 -2
198 33 4 0.06 2.546003943207942 21.081938574081896 25.792805782605036 1 -1 -2
199 34 1 -0.08 33.88470503065054 16.856585925972265 4.730472586129454 8 -4 2
200 34 2 0.46 34.00819285486199 18.00230680454251 5.590958550651515 8 -4 2
201 34 3 -0.56 34.118995967099494 18.8840848888359 6.336341997759516 8 -4 2
202 34 4 0.06 34.655005189672984 16.69385731127267 4.024991326151203 8 -4 2
203 34 4 0.06 33.84806769413683 16.009245038956752 5.397218564984182 8 -4 2
204 34 4 0.06 32.96358442771972 17.00364819695814 4.2409897677599595 8 -4 2
205 35 1 -0.08 10.31959639605871 25.085348414738352 25.42316858022894 3 -4 4
206 35 2 0.46 11.64372123436153 25.424508328805334 25.935492857789917 3 -4 4
207 35 3 -0.56 12.716932741271348 25.763048665368213 26.363662307011534 3 -4 4
208 35 4 0.06 9.949040330853165 24.342659060612924 26.03507149776334 3 -4 4
209 35 4 0.06 9.595176855010159 25.92808539087383 25.4510344720601 3 -4 4
210 35 4 0.06 10.445203156147091 24.795429819955768 24.336902403126327 3 -4 4
211 36 1 -0.08 15.540641864618795 35.09516105141095 21.92464911447754 2 -1 6
212 36 2 0.46 16.264391132510646 34.0529779503977 21.20923712095359 2 -1 6
213 36 3 -0.56 16.788837962020335 33.226750543571995 20.687023438208044 2 -1 6
214 36 4 0.06 14.528507819053887 35.078364050743225 21.655924397913992 2 -1 6
215 36 4 0.06 15.556490019079353 34.78343425795801 22.97995439001568 2 -1 6
216 36 4 0.06 16.208921899060975 0.015942431205658636 21.80678755336912 2 0 6
217 37 1 -0.08 34.81056610682371 0.8929443664132211 6.108195833558931 1 5 1
218 37 2 0.46 33.41365419427005 1.3007535789223048 6.287950648218686 1 5 1
219 37 3 -0.56 32.27101038851566 1.672495277233672 6.458950758849241 1 5 1
220 37 4 0.06 35.202919066407134 0.41413004443027424 6.997077387207326 1 5 1
221 37 4 0.06 34.836306607005476 0.1109351650172359 5.33826538098217 1 5 1
222 37 4 0.06 35.37984926831989 1.7493530456146171 5.81138981048603 1 5 1
223 38 1 -0.08 21.43453554449716 12.85408931341662 31.64213709450373 -1 -1 1
224 38 2 0.46 22.341235706728465 11.798830772724896 32.10812216363016 -1 -1 1
225 38 3 -0.56 23.056456020958024 10.96607357764741 32.44792464920527 -1 -1 1
226 38 4 0.06 21.642198127123173 13.76019173434872 32.179087682289364 -1 -1 1
227 38 4 0.06 21.737359327199027 13.071216770858127 30.6668290304099 -1 -1 1
228 38 4 0.06 20.483095450930573 12.513054418229682 31.742386053958622 -1 -1 1
229 39 1 -0.08 33.707123576799496 34.13541639660007 27.01074127721404 -6 -2 -2
230 39 2 0.46 33.575492033077666 33.793594848959074 28.460854131844663 -6 -2 -2
231 39 3 -0.56 33.47540911076325 33.57109504442985 29.53701671229888 -6 -2 -2
232 39 4 0.06 33.86827543494109 35.22269120177037 27.03216734103603 -6 -2 -2
233 39 4 0.06 34.45734898191637 33.503674915137644 26.567425196174426 -6 -2 -2
234 39 4 0.06 32.78033342577498 34.19036846973467 26.42661805720781 -6 -2 -2
235 40 1 -0.08 0.3937128642478701 3.8105573329880866 29.509883119627407 3 -4 -1
236 40 2 0.46 35.49705442934205 4.816988845371655 30.017267442694443 2 -4 -1
237 40 3 -0.56 34.83154884622654 5.618438102750321 30.497795365593777 2 -4 -1
238 40 4 0.06 0.4741133016313262 3.0484203091633857 30.28418522788513 3 -4 -1
239 40 4 0.06 35.943939238923214 3.454545693917679 28.598996237115227 2 -4 -1
240 40 4 0.06 1.364767926653854 4.357827687153675 29.399918688534584 3 -4 -1
241 41 1 -0.08 17.44253644289341 2.462677288075324 9.631577833911145 -2 4 1
242 41 2 0.46 17.368568600248356 3.869983384121953 9.511034460469615 -2 4 1
243 41 3 -0.56 17.31355738554846 5.032833145744777 9.481123574301916 -2 4 1
244 41 4 0.06 17.4746862801521 2.325513807736786 10.715432340163462 -2 4 1
245 41 4 0.06 16.569544909920637 2.0450404462952325 9.13561394717186 -2 4 1
246 41 4 0.06 18.32780898396504 2.033179338283976 9.170254699884893 -2 4 1
247 42 1 -0.08 12.537895617929724 2.2283458583093827 24.207894423764845 0 -3 -3
248 42 2 0.46 13.104832544731869 0.7874426794043745 24.292591444666705 0 -3 -3
249 42 3 -0.56 13.461973862265797 35.69018692576479 24.336815253728794 0 -4 -3
250 42 4 0.06 12.215804753672948 2.5793534335528143 25.214380615955623 0 -3 -3
251 42 4 0.06 13.31721852004406 2.806677841899211 23.708955308317748 0 -3 -3
252 42 4 0.06 11.824263572292384 2.2738706718469213 23.43388427372064 0 -3 -3
253 43 1 -0.08 2.5342153117389423 0.9180004233964928 24.738903750489413 2 -1 -4
254 43 2 0.46 2.148883864583791 0.21827448228789909 23.550374508795063 2 -1 -4
255 43 3 -0.56 1.9172048528959937 35.73882075641781 22.532237279848214 2 -2 -4
256 43 4 0.06 3.595328663932708 1.0768282604928632 25.02033029595661 2 -1 -4
257 43 4 0.06 2.2441890198996424 1.9467968051614863 24.491667730561407 2 -1 -4
258 43 4 0.06 1.8316807020355579 0.5723189800430372 25.464367356267818 2 -1 -4
259 44 1 -0.08 19.444588565280245 7.853171564181385 10.21777261321158 5 -8 3
260 44 2 0.46 20.038297360844762 7.337617222140842 11.490999460637918 5 -8 3
261 44 3 -0.56 20.495829942713957 6.964460143546618 12.502428991429365 5 -8 3
262 44 4 0.06 18.345610464999975 7.62106118414137 10.367794921585885 5 -8 3
263 44 4 0.06 19.582008293580504 8.928489789492874 10.182424228966834 5 -8 3
264 44 4 0.06 19.905575965291032 7.320455264000009 9.314986883193777 5 -8 3
265 45 1 -0.08 15.063010805709993 4.820841580674746 20.55076320506756 -1 -6 4
266 45 2 0.46 15.59978551711472 3.5886313118125255 21.10056184408144 -1 -6 4
267 45 3 -0.56 15.96224237671048 2.563638674520325 21.582982532998745 -1 -6 4
268 45 4 0.06 14.308338172095947 5.241012918292473 21.18187872548452 -1 -6 4
269 45 4 0.06 15.80456207130364 5.549576530183359 20.43547198099875 -1 -6 4
270 45 4 0.06 14.583022231793425 4.544972041968965 19.571430451525465 -1 -6 4
271 46 1 -0.08 8.639500285724589 9.130999800030832 21.015074666725873 9 0 7
272 46 2 0.46 7.730905178622134 10.239222550045453 20.830336953955264 9 0 7
273 46 3 -0.56 6.996011785238932 11.098460120081418 20.67967462337218 9 0 7
274 46 4 0.06 8.658009740693124 8.556544196292053 20.105722029114396 9 0 7
275 46 4 0.06 9.675250437312899 9.476276576513468 21.26345343961303 9 0 7
276 46 4 0.06 8.295272335414566 8.399081320849797 21.76187714965232 9 0 7
277 47 1 -0.08 8.481626873221579 13.330999794469701 4.923813907082038 0 1 0
278 47 2 0.46 7.377292629310998 13.017247964644941 5.764039164438207 0 1 0
279 47 3 -0.56 6.480378207774877 12.799728602396824 6.45678099429169 0 1 0
280 47 4 0.06 9.4001146319253 12.873307078376286 5.232998016780403 0 1 0
281 47 4 0.06 8.311246528764048 12.895389871404094 3.92161670424244 0 1 0
282 47 4 0.06 8.55096647116568 14.436396038457586 4.790038033147859 0 1 0
283 48 1 -0.08 13.879357571529997 26.80277238753897 18.462545727460967 -1 -3 0
284 48 2 0.46 13.409329622168848 28.084640644018652 18.780112409652236 -1 -3 0
285 48 3 -0.56 13.051705903847038 29.14574568623397 19.042269705406724 -1 -3 0
286 48 4 0.06 14.7705206927972 26.887417203566162 17.805903667991124 -1 -3 0
287 48 4 0.06 14.136753211432033 26.47690443389326 19.50180345714354 -1 -3 0
288 48 4 0.06 12.988921180167832 26.288291726407014 18.075693502470354 -1 -3 0
289 49 1 -0.08 30.207349777463662 5.178145105443349 13.199806972689906 1 -2 2
290 49 2 0.46 31.132010630308102 5.81696250825805 14.033758595915783 1 -2 2
291 49 3 -0.56 31.921989714424758 6.295398840536973 14.752589137344193 1 -2 2
292 49 4 0.06 29.798738802725286 4.336643120166492 13.67127365371531 1 -2 2
293 49 4 0.06 29.462591696621416 5.900652881478085 12.795579585735808 1 -2 2
294 49 4 0.06 30.796683075808502 4.8777414269560735 12.340260543174658 1 -2 2
295 50 1 -0.08 2.515890123316406 2.1238619002887296 6.341564805666484 8 -5 -3
296 50 2 0.46 2.1883404685374965 0.6990975457339333 6.219439618037058 8 -5 -3
297 50 3 -0.56 1.9659253094653122 35.53180741023149 6.092678083763241 8 -6 -3
298 50 4 0.06 2.5739832986022413 2.355830262914371 7.375306994571301 8 -5 -3
299 50 4 0.06 3.4089050869870787 2.2830349411052047 5.75988050831046 8 -5 -3
300 50 4 0.06 1.6896145648578464 2.6494505919503104 5.8608988628616885 8 -5 -3
301 51 1 -0.08 19.730372671745407 26.72391689825183 19.75635006829365 4 -4 1
302 51 2 0.46 21.180559668205387 26.799748572108857 19.863183708157926 4 -4 1
303 51 3 -0.56 22.33006036955216 26.873458055504507 19.975535300767902 4 -4 1
304 51 4 0.06 19.43231898598217 27.12580581541736 18.770766048542846 4 -4 1
305 51 4 0.06 19.493730033750413 25.645029006975587 19.710245076738833 4 -4 1
306 51 4 0.06 19.219055851783896 27.20242391033147 20.64328414629019 4 -4 1
307 52 1 -0.08 25.791014993696322 12.80912960949293 10.582535102938527 -4 -4 3
308 52 2 0.46 26.242815576414458 11.4133548140363 10.601335935574296 -4 -4 3
309 52 3 -0.56 26.629797452175804 10.328997272848273 10.708787921255373 -4 -4 3
310 52 4 0.06 25.410011318746047 13.137959264351403 9.60658137460728 -4 -4 3
311 52 4 0.06 24.94700456909458 12.97873852554194 11.284023124378717 -4 -4 3
312 52 4 0.06 26.65680896411202 13.358889251792569 10.97408179206886 -4 -4 3
313 53 1 -0.08 33.13972389965113 34.12980368967143 1.2735160545627044 4 -2 1
314 53 2 0.46 32.8068233855579 34.695941849819796 2.606345039768342 4 -2 1
315 53 3 -0.56 32.555448894753994 35.085734365005514 3.6542962827764525 4 -2 1
316 53 4 0.06 32.708176912914666 34.682076458191446 0.4757870717699475 4 -2 1
317 53 4 0.06 34.199136209240706 34.26425162159322 1.0618261410189096 4 -2 1
318 53 4 0.06 32.73574914508491 33.14957134873756 1.303641519854782 4 -2 1
319 54 1 -0.08 32.590093329464295 16.67512145276879 12.880510505325214 8 -3 3
320 54 2 0.46 31.92639633746723 17.572437351909723 13.746637787951443 8 -3 3
321 54 3 -0.56 31.443713774850156 18.2807503542215 14.531538588880967 8 -3 3
322 54 4 0.06 33.21591655447107 15.958151446608026 13.486815375583898 8 -3 3
323 54 4 0.06 31.89252804511669 16.142209847840025 12.205851951911063 8 -3 3
324 54 4 0.06 33.12862308046333 17.363637629569084 12.26791308048156 8 -3 3
325 55 1 -0.08 32.329371841549225 8.058959953822514 3.751228990829816 2 -7 2
326 55 2 0.46 32.30017858375852 9.28419397467029 2.93731614688584 2 -7 2
327 55 3 -0.56 32.276101814433716 10.280165837645427 2.3256424967156977 2 -7 2
328 55 4 0.06 33.319610081778045 7.8908305337177485 4.2256801914105635 2 -7 2
329 55 4 0.06 31.502070542762045 7.970162979137878 4.504347408766219 2 -7 2
330 55 4 0.06 32.155159334518906 7.3231725487874755 3.0172926517798544 2 -7 2
331 56 1 -0.08 16.70701982424689 31.12327829200851 31.388389119671412 0 -4 4
332 56 2 0.46 16.96622724680444 29.951908603961687 30.70207336063348 0 -4 4
333 56 3 -0.56 17.229770486881474 28.981036520321034 30.184615168040242 0 -4 4
334 56 4 0.06 16.698427618187214 30.80155762192689 32.38646087320978 0 -4 4
335 56 4 0.06 17.488817325823614 31.902615879695237 31.211345158441297 0 -4 4
336 56 4 0.06 15.744708832793776 31.4895829927537 31.04560469005848 0 -4 4
337 57 1 -0.08 9.883618199619708 30.81161482592132 33.22849276165542 -6 -2 -3
338 57 2 0.46 9.991339668249038 29.84050190933558 34.24478191777738 -6 -2 -3
339 57 3 -0.56 10.018462152948183 29.08277493844518 35.145412475858144 -6 -2 -3
340 57 4 0.06 9.936098748545762 31.85101081762076 33.537619891611925 -6 -2 -3
341 57 4 0.06 10.710542891123831 30.562056450079787 32.63624184286447 -6 -2 -3
342 57 4 0.06 9.007849319873502 30.69483277640103 32.54827670763409 -6 -2 -3
343 58 1 -0.08 20.365591055751946 8.355433682041612 3.8370679246771187 -1 -5 2
344 58 2 0.46 19.617959614119197 8.528608199377025 5.07298846534362 -1 -5 2
345 58 3 -0.56 19.044289976529768 8.661468787979029 6.058097579978782 -1 -5 2
346 58 4 0.06 20.254114596419658 9.330124949402759 3.310216804499703 -1 -5 2
347 58 4 0.06 21.455058883482618 8.194801240497778 4.097510634125137 -1 -5 2
348 58 4 0.06 19.881638999606373 7.570913225954007 3.2837537275783757 -1 -5 2
349 59 1 -0.08 34.80983478472684 7.17306336017929 19.36477491983761 7 3 5
350 59 2 0.46 34.22285762270617 6.757988268485298 18.12708318465092 7 3 5
351 59 3 -0.56 33.70277009849775 6.355860608993312 17.151245632558116 7 3 5
352 59 4 0.06 35.76605330728662 7.635462282840294 19.26647335096535 7 3 5
353 59 4 0.06 34.156555168440015 7.894736602216365 19.83557341655944 7 3 5
354 59 4 0.06 34.68624599104596 6.299613219297044 19.995232483789778 7 3 5
355 60 1 -0.08 20.590022253744582 14.305582982909446 28.410636577943983 -1 -1 -3
356 60 2 0.46 20.890254618653668 12.919948353056592 28.402489766388594 -1 -1 -3
357 60 3 -0.56 21.19375910465989 11.792366110323345 28.34080706350196 -1 -1 -3
358 60 4 0.06 20.360518239998484 14.605149844062607 29.38719498642225 -1 -1 -3
359 60 4 0.06 21.448450301647657 14.811519403723771 27.924339646402522 -1 -1 -3
360 60 4 0.06 19.69429926455182 14.511442859145662 27.79895954849337 -1 -1 -3
361 61 1 -0.08 29.17604555576019 27.831213430409672 21.986657319033608 -1 4 1
362 61 2 0.46 29.53822445410951 29.15943930430826 22.52565609142999 -1 4 1
363 61 3 -0.56 29.75875622639437 30.235063507988155 22.925314804346264 -1 4 1
364 61 4 0.06 28.703739683351493 27.274261460583155 22.750609415401385 -1 4 1
365 61 4 0.06 28.30181480284591 28.063567813363854 21.288099691081307 -1 4 1
366 61 4 0.06 29.975177670565476 27.279651533759132 21.441454175203834 -1 4 1
367 62 1 -0.08 28.116181833869497 1.248796908537101 12.359665860101433 -1 -6 1
368 62 2 0.46 28.69969716135099 2.336589431753618 11.574928194818641 -1 -6 1
369 62 3 -0.56 29.120766018463176 3.237600027122038 10.955842147156105 -1 -6 1
370 62 4 0.06 28.31695059288784 1.4696119874527618 13.37899439252865 -1 -6 1
371 62 4 0.06 27.035694326242233 1.1082777739520806 12.24654330182723 -1 -6 1
372 62 4 0.06 28.735645153886104 0.36026212770469845 12.076276325028918 -1 -6 1
373 63 1 -0.08 32.19679966950414 11.99091249737811 33.94111229672742 1 -2 -1
374 63 2 0.46 33.67086142650544 11.920868728748811 33.78291104073827 1 -2 -1
375 63 3 -0.56 34.83824386920601 11.844411092618731 33.767419975340545 1 -2 -1
376 63 4 0.06 31.944554059860703 12.020246297702359 34.99977973947239 1 -2 -1
377 63 4 0.06 31.971298112491645 12.784375450087602 33.269017249040225 1 -2 -1
378 63 4 0.06 31.905468864249027 11.038226201339823 33.48450214262963 1 -2 -1
379 64 1 -0.08 21.7988270902602 9.009200379290663 0.01918820275238886 0 0 5
380 64 2 0.46 20.963406723780608 9.785648501397711 35.12081851341957 0 0 4
381 64 3 -0.56 20.25321655587902 10.41339946858265 34.46418871364263 0 0 4
382 64 4 0.06 22.69814003482212 9.584230499833508 0.3098771664321175 0 0 5
383 64 4 0.06 21.323580918678395 8.55734085175433 0.8668778900578591 0 0 5