input file for 750 water with 7 LiPF6
2306 atoms
1542 bonds
855 angles
0 dihedrals
0 impropers
5 atom types
2 bond types
3 angle types
0 dihedral types
0 improper types
0.000000   28.570000   xlo xhi
0.000000   28.570000   ylo yhi
0.000000   28.570000   zlo zhi



Masses

1 15.9994 # O
2 1.00794 # H
3 6.941 # Li
4 30.97 # P
5 19.00  # F

Atoms

	1	1	1	-0.820000	         19.074812       26.540460       27.003247 	0	0	0
	2	1	2	0.410000	         19.329561       27.480376       27.278575 	0	0	0
	3	1	2	0.410000	         18.366317       26.184330       27.632187 	0	0	0
	4	2	1	-0.820000	         16.152696       20.431662       20.421124 	0	0	0
	5	2	2	0.410000	         16.275470       21.377675       20.083292 	0	0	0
	6	2	2	0.410000	         15.488720       20.429042       21.184988 	0	0	0
	7	3	1	-0.820000	         15.434669       22.778011       18.234767 	0	0	0
	8	3	2	0.410000	         15.185555       21.988716       17.652443 	0	0	0
	9	3	2	0.410000	         14.959642       23.607228       17.901438 	0	0	0
	10	4	1	-0.820000	         19.027502        6.764378       15.067004 	0	0	0
	11	4	2	0.410000	         19.587900        7.605602       15.116405 	0	0	0
	12	4	2	0.410000	         18.169014        6.958993       14.567521 	0	0	0
	13	5	1	-0.820000	         24.574469       11.261427       28.015958 	0	0	0
	14	5	2	0.410000	         24.237468       12.067059       28.527360 	0	0	0
	15	5	2	0.410000	         25.311269       10.810350       28.543230 	0	0	0
	16	6	1	-0.820000	         16.760597       11.225057        4.000391 	0	0	0
	17	6	2	0.410000	         16.564639       11.893711        3.266465 	0	0	0
	18	6	2	0.410000	         16.643038       11.669003        4.902306 	0	0	0
	19	7	1	-0.820000	         24.285022       25.368224        8.052151 	0	0	0
	20	7	2	0.410000	         24.962526       26.119295        8.084177 	0	0	0
	21	7	2	0.410000	         23.427882       25.666891        8.499886 	0	0	0
	22	8	1	-0.820000	         25.116999        3.391491       18.098222 	0	0	0
	23	8	2	0.410000	         26.064870        3.163302       17.826902 	0	0	0
	24	8	2	0.410000	         24.866450        4.297059       17.722014 	0	0	0
	25	9	1	-0.820000	         19.327156       11.982394        1.594661 	0	0	0
	26	9	2	0.410000	         18.356565       11.851376        1.849476 	0	0	0
	27	9	2	0.410000	         19.415990       12.807077        1.014689 	0	0	0
	28	10	1	-0.820000	          8.932917        0.305640       15.192053 	0	0	0
	29	10	2	0.410000	          9.840427       -0.002453       14.867018 	0	0	0
	30	10	2	0.410000	          8.219475       -0.000650       14.542787 	0	0	0
	31	11	1	-0.820000	          6.931071       25.694759       28.514763 	0	0	0
	32	11	2	0.410000	          6.275954       26.464243       28.568257 	0	0	0
	33	11	2	0.410000	          6.423608       24.819179       28.500581 	0	0	0
	34	12	1	-0.820000	         27.909138        1.521348       24.405552 	0	0	0
	35	12	2	0.410000	         27.717976        0.937512       25.209751 	0	0	0
	36	12	2	0.410000	         27.400877        1.169668       23.604083 	0	0	0
	37	13	1	-0.820000	         23.188191       26.761627        0.997066 	0	0	0
	38	13	2	0.410000	         23.203910       25.763845        0.828756 	0	0	0
	39	13	2	0.410000	         24.127131       27.086773        1.189505 	0	0	0
	40	14	1	-0.820000	          2.842091       14.801830       20.925351 	0	0	0
	41	14	2	0.410000	          3.592328       14.929797       20.258333 	0	0	0
	42	14	2	0.410000	          2.628585       13.816033       21.008896 	0	0	0
	43	15	1	-0.820000	         22.815775        6.253296        8.592685 	0	0	0
	44	15	2	0.410000	         22.566514        7.233938        8.573854 	0	0	0
	45	15	2	0.410000	         23.823558        6.160919        8.606822 	0	0	0
	46	16	1	-0.820000	          8.150618       27.251523        1.485932 	0	0	0
	47	16	2	0.410000	          7.285989       27.674763        1.173795 	0	0	0
	48	16	2	0.410000	          8.445486       27.684414        2.351968 	0	0	0
	49	17	1	-0.820000	         17.073565        6.923195       21.396955 	0	0	0
	50	17	2	0.410000	         17.699691        7.290483       22.102086 	0	0	0
	51	17	2	0.410000	         16.189427        6.678411       21.824437 	0	0	0
	52	18	1	-0.820000	         25.209074       18.587017       19.942421 	0	0	0
	53	18	2	0.410000	         25.249768       17.955603       20.732233 	0	0	0
	54	18	2	0.410000	         24.245260       18.833155       19.755769 	0	0	0
	55	19	1	-0.820000	          6.849194        4.443116        2.860265 	0	0	0
	56	19	2	0.410000	          7.637371        4.078371        2.340763 	0	0	0
	57	19	2	0.410000	          7.124401        5.289699        3.341844 	0	0	0
	58	20	1	-0.820000	          5.335986       10.630681        5.802936 	0	0	0
	59	20	2	0.410000	          5.271953       11.640343        5.827971 	0	0	0
	60	20	2	0.410000	          6.308146       10.352481        5.846176 	0	0	0
	61	21	1	-0.820000	         19.494880       16.227094       13.115531 	0	0	0
	62	21	2	0.410000	         19.409757       17.164954       13.486094 	0	0	0
	63	21	2	0.410000	         19.076459       15.569353       13.761024 	0	0	0
	64	22	1	-0.820000	         18.474892       19.761116       14.353116 	0	0	0
	65	22	2	0.410000	         17.681107       20.387361       14.396323 	0	0	0
	66	22	2	0.410000	         18.150059       18.812844       14.213031 	0	0	0
	67	23	1	-0.820000	          5.741685        6.215984        0.933176 	0	0	0
	68	23	2	0.410000	          5.864656        5.218730        1.053619 	0	0	0
	69	23	2	0.410000	          6.519002        6.706067        1.357389 	0	0	0
	70	24	1	-0.820000	         16.772168        1.004514        4.223699 	0	0	0
	71	24	2	0.410000	         17.756091        1.240887        4.236591 	0	0	0
	72	24	2	0.410000	         16.666205       -0.001991        4.232521 	0	0	0
	73	25	1	-0.820000	          9.933032       18.125516        4.969935 	0	0	0
	74	25	2	0.410000	          9.186284       17.683786        5.490881 	0	0	0
	75	25	2	0.410000	         10.416221       17.429776        4.416010 	0	0	0
	76	26	1	-0.820000	         15.746640       20.660132       10.607790 	0	0	0
	77	26	2	0.410000	         15.397264       19.797733       11.005720 	0	0	0
	78	26	2	0.410000	         16.758436       20.658393       10.632772 	0	0	0
	79	27	1	-0.820000	         25.624480        2.224747       22.848610 	0	0	0
	80	27	2	0.410000	         24.883260        1.599426       23.137938 	0	0	0
	81	27	2	0.410000	         25.268947        3.171156       22.800999 	0	0	0
	82	28	1	-0.820000	         25.491589       15.830819       25.360203 	0	0	0
	83	28	2	0.410000	         25.727395       16.450484       26.124765 	0	0	0
	84	28	2	0.410000	         24.793294       16.268992       24.773050 	0	0	0
	85	29	1	-0.820000	          5.735760       25.036726       13.471634 	0	0	0
	86	29	2	0.410000	          5.965386       24.051795       13.508062 	0	0	0
	87	29	2	0.410000	          5.018826       25.191071       12.774107 	0	0	0
	88	30	1	-0.820000	         27.759011        1.255221        1.772989 	0	0	0
	89	30	2	0.410000	         27.696456        0.356782        2.234549 	0	0	0
	90	30	2	0.410000	         27.712182        1.124187        0.770494 	0	0	0
	91	31	1	-0.820000	         25.065911        2.729587       20.186921 	0	0	0
	92	31	2	0.410000	         26.024209        2.436676       20.328382 	0	0	0
	93	31	2	0.410000	         25.000346        3.734001       20.292816 	0	0	0
	94	32	1	-0.820000	         19.237781       27.702649       23.737788 	0	0	0
	95	32	2	0.410000	         20.209702       27.423326       23.776417 	0	0	0
	96	32	2	0.410000	         18.905928       27.901868       24.672959 	0	0	0
	97	33	1	-0.820000	          7.111053        9.287559        8.647176 	0	0	0
	98	33	2	0.410000	          7.936367        8.704537        8.591630 	0	0	0
	99	33	2	0.410000	          6.645510        9.300851        7.748592 	0	0	0
	100	34	1	-0.820000	         17.227150        9.091075       15.055624 	0	0	0
	101	34	2	0.410000	         17.869485        8.799286       15.781165 	0	0	0
	102	34	2	0.410000	         17.696706        9.068327       14.159320 	0	0	0
	103	35	1	-0.820000	         19.210871        2.121370        2.440095 	0	0	0
	104	35	2	0.410000	         19.071791        1.119750        2.479585 	0	0	0
	105	35	2	0.410000	         20.193981        2.331012        2.558012 	0	0	0
	106	36	1	-0.820000	          3.808663        7.569083        9.438665 	0	0	0
	107	36	2	0.410000	          4.390609        7.014463       10.053383 	0	0	0
	108	36	2	0.410000	          2.837147        7.322969        9.579892 	0	0	0
	109	37	1	-0.820000	         15.384530       20.415109        7.918175 	0	0	0
	110	37	2	0.410000	         14.735976       20.466084        7.142983 	0	0	0
	111	37	2	0.410000	         14.944567       19.940444        8.696305 	0	0	0
	112	38	1	-0.820000	         12.068693       14.110727       23.851533 	0	0	0
	113	38	2	0.410000	         12.760360       14.846694       23.915512 	0	0	0
	114	38	2	0.410000	         12.340283       13.453305       23.131536 	0	0	0
	115	39	1	-0.820000	          3.227730       12.694205        4.629190 	0	0	0
	116	39	2	0.410000	          2.223269       12.760365        4.525150 	0	0	0
	117	39	2	0.410000	          3.518035       11.732893        4.502854 	0	0	0
	118	40	1	-0.820000	         14.237870        2.173642        8.980594 	0	0	0
	119	40	2	0.410000	         13.819223        2.217738        9.900884 	0	0	0
	120	40	2	0.410000	         14.035254        1.275752        8.559762 	0	0	0
	121	41	1	-0.820000	         13.220095       19.562169        0.559328 	0	0	0
	122	41	2	0.410000	         13.950222       19.140192       -0.000131 	0	0	0
	123	41	2	0.410000	         12.381442       19.661290        0.001478 	0	0	0
	124	42	1	-0.820000	         -0.000183       18.953020       27.243156 	0	0	0
	125	42	2	0.410000	          0.798430       19.474541       27.581352 	0	0	0
	126	42	2	0.410000	          0.174447       17.961637       27.348155 	0	0	0
	127	43	1	-0.820000	         20.650095        9.810289       10.461502 	0	0	0
	128	43	2	0.410000	         19.806135        9.601119       10.979309 	0	0	0
	129	43	2	0.410000	         20.440028       10.473593        9.726478 	0	0	0
	130	44	1	-0.820000	         13.241656       15.171117       14.832551 	0	0	0
	131	44	2	0.410000	         13.014230       16.129181       15.066078 	0	0	0
	132	44	2	0.410000	         13.294639       15.071837       13.826720 	0	0	0
	133	45	1	-0.820000	         24.558272       15.025699        4.378822 	0	0	0
	134	45	2	0.410000	         24.311776       14.333679        3.682767 	0	0	0
	135	45	2	0.410000	         25.208990       14.622349        5.040815 	0	0	0
	136	46	1	-0.820000	         27.822319       23.699637        8.409768 	0	0	0
	137	46	2	0.410000	         27.273509       23.013754        8.912277 	0	0	0
	138	46	2	0.410000	         28.507913       24.106560        9.033253 	0	0	0
	139	47	1	-0.820000	         17.575460        9.753361       20.552349 	0	0	0
	140	47	2	0.410000	         18.104189        8.896599       20.655053 	0	0	0
	141	47	2	0.410000	         16.624247        9.533587       20.285416 	0	0	0
	142	48	1	-0.820000	          5.975376       20.085921       12.372609 	0	0	0
	143	48	2	0.410000	          5.153456       19.927597       11.803818 	0	0	0
	144	48	2	0.410000	          5.752679       19.911400       13.344364 	0	0	0
	145	49	1	-0.820000	         16.864551       22.433863       12.477284 	0	0	0
	146	49	2	0.410000	         16.357887       21.582364       12.683163 	0	0	0
	147	49	2	0.410000	         16.208996       23.193220       12.343175 	0	0	0
	148	50	1	-0.820000	          6.533490       16.093504       13.019626 	0	0	0
	149	50	2	0.410000	          7.387867       16.292010       12.514868 	0	0	0
	150	50	2	0.410000	          6.300477       16.880177       13.612256 	0	0	0
	151	51	1	-0.820000	         22.147512       26.636322       13.106201 	0	0	0
	152	51	2	0.410000	         22.208628       27.187188       12.259469 	0	0	0
	153	51	2	0.410000	         21.843660       25.698270       12.877964 	0	0	0
	154	52	1	-0.820000	          7.575098       27.342896       16.255944 	0	0	0
	155	52	2	0.410000	          8.269158       27.925202       15.805006 	0	0	0
	156	52	2	0.410000	          6.782425       27.222017       15.638354 	0	0	0
	157	53	1	-0.820000	         19.072594       27.117668       20.194304 	0	0	0
	158	53	2	0.410000	         19.028535       26.684196       21.107707 	0	0	0
	159	53	2	0.410000	         18.827380       28.096500       20.272514 	0	0	0
	160	54	1	-0.820000	         19.103598       11.954728       27.171319 	0	0	0
	161	54	2	0.410000	         19.875494       11.305097       27.250676 	0	0	0
	162	54	2	0.410000	         19.459484       12.878303       26.959859 	0	0	0
	163	55	1	-0.820000	         25.948359       22.064347       13.551186 	0	0	0
	164	55	2	0.410000	         25.999757       22.672207       14.358656 	0	0	0
	165	55	2	0.410000	         25.053220       22.184200       13.094325 	0	0	0
	166	56	1	-0.820000	         27.135396       16.273145       13.436152 	0	0	0
	167	56	2	0.410000	         27.815286       15.537050       13.294526 	0	0	0
	168	56	2	0.410000	         27.588603       17.173668       13.346590 	0	0	0
	169	57	1	-0.820000	          8.529649       12.352942        4.679921 	0	0	0
	170	57	2	0.410000	          7.690861       11.957404        5.085047 	0	0	0
	171	57	2	0.410000	          8.366540       13.324046        4.446015 	0	0	0
	172	58	1	-0.820000	          5.940297       10.585978       22.432218 	0	0	0
	173	58	2	0.410000	          5.599232       10.004850       21.677163 	0	0	0
	174	58	2	0.410000	          6.424188       10.010401       23.109654 	0	0	0
	175	59	1	-0.820000	         22.998615       19.693981        5.961722 	0	0	0
	176	59	2	0.410000	         23.544573       19.286236        6.709932 	0	0	0
	177	59	2	0.410000	         22.256949       19.057436        5.698847 	0	0	0
	178	60	1	-0.820000	          0.864574       28.127108        9.875447 	0	0	0
	179	60	2	0.410000	          0.117623       28.568930       10.396026 	0	0	0
	180	60	2	0.410000	          1.728116       28.196209       10.398783 	0	0	0
	181	61	1	-0.820000	          6.962934       13.119864        9.105936 	0	0	0
	182	61	2	0.410000	          7.314203       13.872131        9.684596 	0	0	0
	183	61	2	0.410000	          6.172847       13.449414        8.566011 	0	0	0
	184	62	1	-0.820000	          4.587874       13.117596       21.725590 	0	0	0
	185	62	2	0.410000	          4.793806       13.980305       22.212899 	0	0	0
	186	62	2	0.410000	          4.620458       12.344689       22.378210 	0	0	0
	187	63	1	-0.820000	          5.790514        5.185107       27.892369 	0	0	0
	188	63	2	0.410000	          5.140950        5.655821       28.509329 	0	0	0
	189	63	2	0.410000	          6.031470        4.282033       28.280643 	0	0	0
	190	64	1	-0.820000	         19.576451       15.642108        4.985178 	0	0	0
	191	64	2	0.410000	         19.349714       14.748692        5.402960 	0	0	0
	192	64	2	0.410000	         20.577839       15.785585        5.016726 	0	0	0
	193	65	1	-0.820000	         18.708171       27.669751       15.672728 	0	0	0
	194	65	2	0.410000	         19.383877       27.029191       15.276184 	0	0	0
	195	65	2	0.410000	         19.159390       28.551847       15.879293 	0	0	0
	196	66	1	-0.820000	         24.779830       16.962391       28.043489 	0	0	0
	197	66	2	0.410000	         24.792021       17.827279       28.568812 	0	0	0
	198	66	2	0.410000	         23.891089       16.867901       27.568546 	0	0	0
	199	67	1	-0.820000	         24.382467       15.207293       15.999712 	0	0	0
	200	67	2	0.410000	         24.739255       14.263342       15.923540 	0	0	0
	201	67	2	0.410000	         23.370861       15.189424       15.973383 	0	0	0
	202	68	1	-0.820000	         12.584617       24.736653       19.303034 	0	0	0
	203	68	2	0.410000	         12.355804       25.238585       20.151475 	0	0	0
	204	68	2	0.410000	         11.737819       24.553644       18.779773 	0	0	0
	205	69	1	-0.820000	         19.186240       12.661888        4.714103 	0	0	0
	206	69	2	0.410000	         18.739735       12.635370        5.621888 	0	0	0
	207	69	2	0.410000	         18.851299       11.891167        4.150041 	0	0	0
	208	70	1	-0.820000	         11.680475        9.271339       14.463407 	0	0	0
	209	70	2	0.410000	         12.325545        9.302125       15.242561 	0	0	0
	210	70	2	0.410000	         11.212026       10.164334       14.376947 	0	0	0
	211	71	1	-0.820000	         15.274287       14.078839       18.010557 	0	0	0
	212	71	2	0.410000	         14.956032       13.118322       17.994298 	0	0	0
	213	71	2	0.410000	         14.475104       14.699313       18.036606 	0	0	0
	214	72	1	-0.820000	         27.189343       10.128126        8.503459 	0	0	0
	215	72	2	0.410000	         26.975938       11.096895        8.303239 	0	0	0
	216	72	2	0.410000	         26.631933        9.814359        9.287809 	0	0	0
	217	73	1	-0.820000	          8.264430        6.938975       19.278639 	0	0	0
	218	73	2	0.410000	          7.748011        6.286137       19.854189 	0	0	0
	219	73	2	0.410000	          9.127206        6.508805       18.970528 	0	0	0
	220	74	1	-0.820000	         18.872912       22.877889       11.661035 	0	0	0
	221	74	2	0.410000	         19.172572       22.219776       12.369015 	0	0	0
	222	74	2	0.410000	         18.591260       23.744097       12.102300 	0	0	0
	223	75	1	-0.820000	         10.796372       18.954059        2.397451 	0	0	0
	224	75	2	0.410000	         10.447703       19.899135        2.494434 	0	0	0
	225	75	2	0.410000	         11.635478       18.844718        2.952704 	0	0	0
	226	76	1	-0.820000	         24.920272       11.407001       17.398816 	0	0	0
	227	76	2	0.410000	         24.678060       10.445248       17.600083 	0	0	0
	228	76	2	0.410000	         24.085382       11.978498       17.425463 	0	0	0
	229	77	1	-0.820000	         12.908808       20.739721        8.361411 	0	0	0
	230	77	2	0.410000	         12.197637       20.690822        9.079735 	0	0	0
	231	77	2	0.410000	         12.577731       20.274470        7.525773 	0	0	0
	232	78	1	-0.820000	          5.268826       27.309096       25.614565 	0	0	0
	233	78	2	0.410000	          5.804549       28.150935       25.445887 	0	0	0
	234	78	2	0.410000	          4.281655       27.512559       25.522603 	0	0	0
	235	79	1	-0.820000	         18.982456       17.831218       20.494335 	0	0	0
	236	79	2	0.410000	         19.233780       18.809094       20.425489 	0	0	0
	237	79	2	0.410000	         19.815312       17.278565       20.653345 	0	0	0
	238	80	1	-0.820000	         20.034339       20.504123        6.143075 	0	0	0
	239	80	2	0.410000	         20.919308       20.994915        6.152896 	0	0	0
	240	80	2	0.410000	         20.160309       19.572530        6.518076 	0	0	0
	241	81	1	-0.820000	         13.384203        6.211171       21.066902 	0	0	0
	242	81	2	0.410000	         13.707716        5.253531       21.115993 	0	0	0
	243	81	2	0.410000	         14.176876        6.830386       20.954643 	0	0	0
	244	82	1	-0.820000	         11.945241       20.432910       26.548450 	0	0	0
	245	82	2	0.410000	         10.962927       20.668923       26.607615 	0	0	0
	246	82	2	0.410000	         12.048033       19.428285       26.481211 	0	0	0
	247	83	1	-0.820000	         22.841447       20.138922       16.196965 	0	0	0
	248	83	2	0.410000	         21.945828       19.669036       16.162072 	0	0	0
	249	83	2	0.410000	         22.894141       20.704221       17.034831 	0	0	0
	250	84	1	-0.820000	         13.409328       27.559934       25.647841 	0	0	0
	251	84	2	0.410000	         13.444776       28.501464       25.278506 	0	0	0
	252	84	2	0.410000	         12.522061       27.412032       26.111783 	0	0	0
	253	85	1	-0.820000	         16.544928        8.557612       27.393440 	0	0	0
	254	85	2	0.410000	         16.102516        8.102418       28.181611 	0	0	0
	255	85	2	0.410000	         16.722606        7.876749       26.665967 	0	0	0
	256	86	1	-0.820000	          5.159386        3.900701       22.523670 	0	0	0
	257	86	2	0.410000	          4.758848        4.086579       21.613086 	0	0	0
	258	86	2	0.410000	          5.111967        2.908486       22.717631 	0	0	0
	259	87	1	-0.820000	         19.673292        4.916494       10.957516 	0	0	0
	260	87	2	0.410000	         18.668957        4.829484       10.868724 	0	0	0
	261	87	2	0.410000	         20.065031        4.029612       11.247930 	0	0	0
	262	88	1	-0.820000	         14.643094       24.340290       13.368540 	0	0	0
	263	88	2	0.410000	         14.818371       23.589243       14.023789 	0	0	0
	264	88	2	0.410000	         14.163151       23.974735       12.555900 	0	0	0
	265	89	1	-0.820000	          4.655456        4.929747       11.963376 	0	0	0
	266	89	2	0.410000	          5.376147        4.319834       11.599019 	0	0	0
	267	89	2	0.410000	          4.946235        5.893996       11.863225 	0	0	0
	268	90	1	-0.820000	         13.161515       23.922184       16.677912 	0	0	0
	269	90	2	0.410000	         12.414828       24.605180       16.667005 	0	0	0
	270	90	2	0.410000	         13.267005       23.521945       15.754310 	0	0	0
	271	91	1	-0.820000	         23.257668        9.764665       26.026561 	0	0	0
	272	91	2	0.410000	         22.316904        9.430326       26.191862 	0	0	0
	273	91	2	0.410000	         23.283780       10.770111       26.139502 	0	0	0
	274	92	1	-0.820000	          1.214495        2.281202        2.223747 	0	0	0
	275	92	2	0.410000	          0.304270        1.990809        1.890120 	0	0	0
	276	92	2	0.410000	          1.504893        3.115788        1.730295 	0	0	0
	277	93	1	-0.820000	         21.006347       20.864087       27.303480 	0	0	0
	278	93	2	0.410000	         20.090249       21.174030       27.601546 	0	0	0
	279	93	2	0.410000	         21.674337       21.613989       27.429162 	0	0	0
	280	94	1	-0.820000	          9.500607       11.865417       15.020067 	0	0	0
	281	94	2	0.410000	          9.224363       10.892663       14.980290 	0	0	0
	282	94	2	0.410000	          9.851434       12.154403       14.115763 	0	0	0
	283	95	1	-0.820000	         10.384775       22.031443        7.480103 	0	0	0
	284	95	2	0.410000	         11.392114       22.126015        7.501747 	0	0	0
	285	95	2	0.410000	         10.138238       21.050855        7.435070 	0	0	0
	286	96	1	-0.820000	         21.678859       20.913759       11.304022 	0	0	0
	287	96	2	0.410000	         21.111683       20.089909       11.149987 	0	0	0
	288	96	2	0.410000	         22.657136       20.654341       11.310012 	0	0	0
	289	97	1	-0.820000	         14.045356       25.239442        3.668961 	0	0	0
	290	97	2	0.410000	         14.350437       25.791564        4.460309 	0	0	0
	291	97	2	0.410000	         13.301984       25.725799        3.183971 	0	0	0
	292	98	1	-0.820000	         15.186990       12.323182       25.814056 	0	0	0
	293	98	2	0.410000	         15.472972       12.189976       26.775625 	0	0	0
	294	98	2	0.410000	         15.975254       12.158226       25.201039 	0	0	0
	295	99	1	-0.820000	          8.105812       17.977896       14.221641 	0	0	0
	296	99	2	0.410000	          8.067434       18.772602       14.847032 	0	0	0
	297	99	2	0.410000	          7.956700       18.289040       13.270161 	0	0	0
	298	100	1	-0.820000	          2.751871       23.000800       27.174851 	0	0	0
	299	100	2	0.410000	          3.560370       22.527198       27.557178 	0	0	0
	300	100	2	0.410000	          2.942679       23.278279       26.220410 	0	0	0
	301	101	1	-0.820000	          1.006341       12.840790        9.070820 	0	0	0
	302	101	2	0.410000	         -0.000041       12.789618        8.977433 	0	0	0
	303	101	2	0.410000	          1.284362       13.803998        9.209719 	0	0	0
	304	102	1	-0.820000	         23.337075        5.313152       23.071801 	0	0	0
	305	102	2	0.410000	         23.285058        4.489769       23.657872 	0	0	0
	306	102	2	0.410000	         24.205737        5.800869       23.250462 	0	0	0
	307	103	1	-0.820000	         21.221923        4.492483        2.183757 	0	0	0
	308	103	2	0.410000	         21.589775        4.203851        1.286249 	0	0	0
	309	103	2	0.410000	         21.967611        4.885146        2.744225 	0	0	0
	310	104	1	-0.820000	         10.395214        9.572933       18.922828 	0	0	0
	311	104	2	0.410000	         10.268487        8.861124       19.630933 	0	0	0
	312	104	2	0.410000	         10.426927       10.484396       19.361677 	0	0	0
	313	105	1	-0.820000	          1.622357        9.208157       10.887033 	0	0	0
	314	105	2	0.410000	          1.145136        8.343543       10.666021 	0	0	0
	315	105	2	0.410000	          1.211717        9.618500       11.716101 	0	0	0
	316	106	1	-0.820000	          8.831766        2.800168       18.963088 	0	0	0
	317	106	2	0.410000	          9.741193        2.488198       19.278938 	0	0	0
	318	106	2	0.410000	          8.810214        3.811812       18.941389 	0	0	0
	319	107	1	-0.820000	         12.604110       22.715021        5.282736 	0	0	0
	320	107	2	0.410000	         12.829390       21.906659        5.848372 	0	0	0
	321	107	2	0.410000	         11.680694       23.050732        5.525554 	0	0	0
	322	108	1	-0.820000	         18.491092        8.883107       23.393422 	0	0	0
	323	108	2	0.410000	         18.052357        9.545126       22.766218 	0	0	0
	324	108	2	0.410000	         19.441927        8.711200       23.092221 	0	0	0
	325	109	1	-0.820000	         12.478792       19.880825       22.139426 	0	0	0
	326	109	2	0.410000	         13.222453       20.566845       22.161529 	0	0	0
	327	109	2	0.410000	         11.583379       20.352299       22.156986 	0	0	0
	328	110	1	-0.820000	         16.616161        5.665554       26.968180 	0	0	0
	329	110	2	0.410000	         17.100463        5.200385       26.211072 	0	0	0
	330	110	2	0.410000	         17.150910        5.568066       27.821935 	0	0	0
	331	111	1	-0.820000	          4.436998       -0.002615        1.389308 	0	0	0
	332	111	2	0.410000	          3.435053        0.066298        1.264806 	0	0	0
	333	111	2	0.410000	          4.697794        0.419382        2.271500 	0	0	0
	334	112	1	-0.820000	         15.624238       14.757615       12.110899 	0	0	0
	335	112	2	0.410000	         16.426424       14.730248       11.494545 	0	0	0
	336	112	2	0.410000	         14.876311       14.200899       11.717155 	0	0	0
	337	113	1	-0.820000	         25.755569       22.942662        4.483095 	0	0	0
	338	113	2	0.410000	         24.966761       22.316262        4.580809 	0	0	0
	339	113	2	0.410000	         26.579429       22.411847        4.230409 	0	0	0
	340	114	1	-0.820000	         11.024457       15.736758       24.910178 	0	0	0
	341	114	2	0.410000	         10.653777       16.519369       24.386478 	0	0	0
	342	114	2	0.410000	         10.351516       14.980775       24.909912 	0	0	0
	343	115	1	-0.820000	         14.544222       22.556783       22.371030 	0	0	0
	344	115	2	0.410000	         13.755929       22.825027       22.946167 	0	0	0
	345	115	2	0.410000	         15.069037       21.826913       22.836024 	0	0	0
	346	116	1	-0.820000	         23.799742       27.848788       13.906280 	0	0	0
	347	116	2	0.410000	         23.685832       28.569262       14.607768 	0	0	0
	348	116	2	0.410000	         24.785706       27.689175       13.742703 	0	0	0
	349	117	1	-0.820000	         10.023347       20.234839       10.815286 	0	0	0
	350	117	2	0.410000	         10.524132       19.680091       10.132927 	0	0	0
	351	117	2	0.410000	          9.924809       19.707116       11.673283 	0	0	0
	352	118	1	-0.820000	         18.780629        3.376228        4.541349 	0	0	0
	353	118	2	0.410000	         19.174955        4.055870        5.179109 	0	0	0
	354	118	2	0.410000	         17.843908        3.659114        4.282719 	0	0	0
	355	119	1	-0.820000	          1.656548       20.236145       15.885155 	0	0	0
	356	119	2	0.410000	          1.096635       21.060718       16.060429 	0	0	0
	357	119	2	0.410000	          2.637659       20.484212       15.900741 	0	0	0
	358	120	1	-0.820000	         15.369685       14.865482       26.935626 	0	0	0
	359	120	2	0.410000	         15.434294       15.793853       27.333242 	0	0	0
	360	120	2	0.410000	         16.147017       14.304144       27.259687 	0	0	0
	361	121	1	-0.820000	         11.467748        3.178669        3.396537 	0	0	0
	362	121	2	0.410000	         11.507034        4.123753        3.756281 	0	0	0
	363	121	2	0.410000	         12.180072        3.056855        2.687935 	0	0	0
	364	122	1	-0.820000	         15.359771        1.407313       12.870504 	0	0	0
	365	122	2	0.410000	         16.211301        0.911346       13.100844 	0	0	0
	366	122	2	0.410000	         14.575506        0.768769       12.909894 	0	0	0
	367	123	1	-0.820000	          8.953192       18.890171       24.897962 	0	0	0
	368	123	2	0.410000	          9.451471       18.098105       25.283311 	0	0	0
	369	123	2	0.410000	          8.640971       19.491424       25.649875 	0	0	0
	370	124	1	-0.820000	          4.195113       15.393516        4.689829 	0	0	0
	371	124	2	0.410000	          5.141355       15.574785        4.380133 	0	0	0
	372	124	2	0.410000	          3.689485       16.267386        4.760913 	0	0	0
	373	125	1	-0.820000	         15.569547        0.081632       17.954961 	0	0	0
	374	125	2	0.410000	         15.696998       -0.060772       18.948753 	0	0	0
	375	125	2	0.410000	         14.888930        0.815170       17.803167 	0	0	0
	376	126	1	-0.820000	         11.761412       16.646938        6.242140 	0	0	0
	377	126	2	0.410000	         11.484848       17.600686        6.437132 	0	0	0
	378	126	2	0.410000	         12.470306       16.641542        5.519783 	0	0	0
	379	127	1	-0.820000	         16.772036       28.461991       21.215719 	0	0	0
	380	127	2	0.410000	         17.431868       28.285124       21.962367 	0	0	0
	381	127	2	0.410000	         15.843355       28.568939       21.603630 	0	0	0
	382	128	1	-0.820000	          0.905126        0.694084       22.733534 	0	0	0
	383	128	2	0.410000	          0.048627        0.811772       23.259560 	0	0	0
	384	128	2	0.410000	          1.153040        1.569899       22.290989 	0	0	0